CRYSTAL
PRIMVEC 1
      0.0000000000       2.4595782679       2.4595782679
      2.4595782679       0.0000000000       2.4595782679
      2.4595782679       2.4595782679       0.0000000000
PRIMCOORD 1
1 1
82       0.0000000000       0.0000000000       0.0000000000
