CRYSTAL
PRIMVEC 1
      0.0000000000       2.7164586260       2.7164586260
      2.7164586260       0.0000000000       2.7164586260
      2.7164586260       2.7164586260       0.0000000000
PRIMCOORD 1
2 1
14       1.3582293131       4.0746879391       1.3582293131
14      -0.0000000000      -0.0000000000       2.7164586260
